TITLE     = "015.01"
VARIABLES = "X"
"Y"
"Z"
"CP"
"CF"
"CFX"
"CFY"
"CFZ"
"XoC"
DATASETAUXDATA BasicAlgorithm="RANS"
DATASETAUXDATA Discretization="Finite-volume nodal scheme mixed element"
DATASETAUXDATA DistanceCalc="-999"
DATASETAUXDATA Email="tin.c.wong.civ@army.mil"
DATASETAUXDATA GridId="Cadence"
DATASETAUXDATA Institution="US Army/SRD"
DATASETAUXDATA Name="TC Wong"
DATASETAUXDATA Notes="-999"
DATASETAUXDATA Order="Second order of accuracy for all equations"
DATASETAUXDATA ParticipantID="015"
DATASETAUXDATA SolverName="FUN3D Version 14.1"
DATASETAUXDATA SubmissionDate="2024-11-12"
DATASETAUXDATA TurbulenceModel="SA-RC"
ZONE T="015.01 Alpha 1.36 - Grid Level 1 - SECTIONAL CUT 1 - eta=0.5"
 STRANDID=0, SOLUTIONTIME=0
 I=415, J=1, K=1, ZONETYPE=Ordered
 DATAPACKING=BLOCK
 AUXDATA Deltat="-999"
 AUXDATA GridFileName="Cadence_V1"
 AUXDATA Tstatic="28.13 deg F"
 DT=(SINGLE SINGLE SINGLE SINGLE SINGLE SINGLE SINGLE SINGLE SINGLE )
 2.300000000000E+02 2.298746948242E+02 2.297431182861E+02 2.296049652100E+02
 2.294598999023E+02 2.293075866699E+02 2.291476593018E+02 2.289797210693E+02
 2.288033905029E+02 2.286182403564E+02 2.284238281250E+02 2.282196807861E+02
 2.280053253174E+02 2.277802581787E+02 2.275438995361E+02 2.272957305908E+02
 2.270351409912E+02 2.267614898682E+02 2.264741516113E+02 2.261724243164E+02
 2.258555908203E+02 2.255229034424E+02 2.251735382080E+02 2.248067016602E+02
 2.244214782715E+02 2.240169525146E+02 2.235921783447E+02 2.231461334229E+02
 2.226777343750E+02 2.221858673096E+02 2.216693572998E+02 2.211269836426E+02
 2.205574493408E+02 2.199593811035E+02 2.193313446045E+02 2.186718597412E+02
 2.179793548584E+02 2.172521667480E+02 2.164885711670E+02 2.156867370605E+02
 2.148447723389E+02 2.139606628418E+02 2.130323181152E+02 2.120575103760E+02
 2.110339202881E+02 2.099591217041E+02 2.088305511475E+02 2.076455230713E+02
 2.064012145996E+02 2.050946502686E+02 2.037227020264E+02 2.022821044922E+02
 2.007693939209E+02 1.991809539795E+02 1.975129547119E+02 1.957613983154E+02
 1.939220275879E+02 1.919903869629E+02 1.899617462158E+02 1.878311309814E+02
 1.855932312012E+02 1.833263092041E+02 1.810975494385E+02 1.788932189941E+02
 1.767001037598E+02 1.745053405762E+02 1.722960357666E+02 1.700590209961E+02
 1.677805480957E+02 1.655742340088E+02 1.634713745117E+02 1.614672698975E+02
 1.595574340820E+02 1.577375793457E+02 1.560035400391E+02 1.543513793945E+02
 1.527772979736E+02 1.512776641846E+02 1.498490142822E+02 1.484880218506E+02
 1.471915130615E+02 1.459564666748E+02 1.447799835205E+02 1.436593322754E+02
 1.425918579102E+02 1.415750579834E+02 1.406065521240E+02 1.396840362549E+02
 1.388053436279E+02 1.379684143066E+02 1.371712493896E+02 1.364119720459E+02
 1.356887969971E+02 1.350000000000E+02 1.343111572266E+02 1.336222534180E+02
 1.329333190918E+02 1.322443237305E+02 1.315552825928E+02 1.308662109375E+02
 1.301770782471E+02 1.294879150391E+02 1.287987213135E+02 1.281094665527E+02
 1.274201889038E+02 1.267308731079E+02 1.260415191650E+02 1.253521347046E+02
 1.246627197266E+02 1.239732666016E+02 1.232837829590E+02 1.225942687988E+02
 1.219047317505E+02 1.212151641846E+02 1.205255737305E+02 1.198359527588E+02
 1.191463088989E+02 1.184566421509E+02 1.177669525146E+02 1.170772476196E+02
 1.163875122070E+02 1.156977615356E+02 1.150079956055E+02 1.143182067871E+02
 1.136284027100E+02 1.129385757446E+02 1.122487411499E+02 1.115588912964E+02
 1.108690261841E+02 1.101791458130E+02 1.094892578125E+02 1.087993545532E+02
 1.081094436646E+02 1.074195251465E+02 1.067295913696E+02 1.060396499634E+02
 1.053497009277E+02 1.046597442627E+02 1.039697875977E+02 1.032798156738E+02
 1.025898437500E+02 1.018998718262E+02 1.012098922729E+02 1.005199050903E+02
 9.982991790771E+01 9.913993072510E+01 9.844994354248E+01 9.775994873047E+01
 9.706996154785E+01 9.637997436523E+01 9.568998718262E+01 9.500000000000E+01
 9.431001281738E+01 9.358554077148E+01 9.282483673096E+01 9.202610778809E+01
 9.118745422363E+01 9.030687713623E+01 8.938227844238E+01 8.841146850586E+01
 8.739212799072E+01 8.632184600830E+01 8.519808197021E+01 8.401815795898E+01
 8.277928161621E+01 8.147850036621E+01 8.011273956299E+01 7.867876434326E+01
 7.717317199707E+01 7.559239196777E+01 7.393270111084E+01 7.219017028809E+01
 7.036067962646E+01 6.843992614746E+01 6.642339324951E+01 6.430634307861E+01
 6.208381271362E+01 5.978711318970E+01 5.748968124390E+01 5.519188690186E+01
 5.289409637451E+01 5.059669113159E+01 4.830006027222E+01 4.600460815430E+01
 4.371074295044E+01 4.141889572144E+01 3.912951660156E+01 3.686305999756E+01
 3.470600128174E+01 3.265318679810E+01 3.069971275330E+01 2.884091758728E+01
 2.707236671448E+01 2.538986396790E+01 2.378943061829E+01 2.226726913452E+01
 2.081978607178E+01 1.944355201721E+01 1.813530349731E+01 1.689196586609E+01
 1.571060848236E+01 1.458850383759E+01 1.352304172516E+01 1.251180076599E+01
 1.155247879028E+01 1.064293098450E+01 9.781147003174E+00 8.965251922607E+00
 8.193526268005E+00 7.464392662048E+00 6.776391983032E+00 6.128215789795E+00
 5.518689155579E+00 4.946761608124E+00 4.411502838135E+00 3.912088871002E+00
 3.447789669037E+00 3.017937421799E+00 2.621920347214E+00 2.259102344513E+00
 1.928728938103E+00 1.629969835281E+00 1.361754417419E+00 1.122808933258E+00
 9.116263985634E-01 7.265279293060E-01 5.658389329910E-01 4.279459714890E-01
 3.112803101540E-01 2.145024836063E-01 1.365213990211E-01 7.643164694309E-02
 3.379178419709E-02 8.370470255613E-03 -7.982709545468E-16 9.170820936561E-03
 3.968382254243E-02 9.636067599058E-02 1.832398623228E-01 3.024935424328E-01
 4.544178545475E-01 6.379758119583E-01 8.515434265137E-01 1.093467712402E+00
 1.362364768982E+00 1.657207965851E+00 1.977399826050E+00 2.322684288025E+00
 2.693048715591E+00 3.088758468628E+00 3.510226249695E+00 3.958070516586E+00
 4.433054447174E+00 4.936075687408E+00 5.468185424805E+00 6.030535697937E+00
 6.624455928802E+00 7.251358032227E+00 7.912850856781E+00 8.610613822937E+00
 9.346477508545E+00 1.012237358093E+01 1.094035530090E+01 1.180256462097E+01
 1.271123504639E+01 1.366867923737E+01 1.467729377747E+01 1.573959255219E+01
 1.685816764832E+01 1.803572463989E+01 1.927510070801E+01 2.057928085327E+01
 2.195140457153E+01 2.339477920532E+01 2.491290664673E+01 2.650947761536E+01
 2.818839073181E+01 2.995376586914E+01 3.180992507935E+01 3.376141357422E+01
 3.581298828125E+01 3.796961593628E+01 4.023648071289E+01 4.252704620361E+01
 4.482063674927E+01 4.711693954468E+01 4.941568756104E+01 5.171662139893E+01
 5.401951599121E+01 5.632415390015E+01 5.863033294678E+01 6.093785476685E+01
 6.324653625488E+01 6.555618286133E+01 6.786662292480E+01 7.017766571045E+01
 7.248915100098E+01 7.480089569092E+01 7.711273956299E+01 7.942453002930E+01
 8.173612213135E+01 8.404737091064E+01 8.635814666748E+01 8.866834259033E+01
 9.097784423828E+01 9.328656768799E+01 9.559444427490E+01 9.790140533447E+01
 1.002073974609E+02 1.025123825073E+02 1.048163146973E+02 1.071191711426E+02
 1.094209136963E+02 1.117215270996E+02 1.140209884644E+02 1.163192825317E+02
 1.186164093018E+02 1.209123535156E+02 1.232071304321E+02 1.255007553101E+02
 1.277932281494E+02 1.300845947266E+02 1.323748779297E+02 1.346641235352E+02
 1.369523773193E+02 1.392396850586E+02 1.415261077881E+02 1.438117218018E+02
 1.460965728760E+02 1.483807678223E+02 1.506643981934E+02 1.529475555420E+02
 1.552303619385E+02 1.575129241943E+02 1.597953948975E+02 1.620779113770E+02
 1.643606567383E+02 1.666437988281E+02 1.689275054932E+02 1.712119445801E+02
 1.734972686768E+02 1.757835998535E+02 1.780710601807E+02 1.803596801758E+02
 1.826494445801E+02 1.849402770996E+02 1.872047729492E+02 1.893631744385E+02
 1.914201812744E+02 1.933802947998E+02 1.952478637695E+02 1.970270385742E+02
 1.987218170166E+02 2.003360748291E+02 2.018735046387E+02 2.033376922607E+02
 2.047320404053E+02 2.060598449707E+02 2.073242340088E+02 2.085282135010E+02
 2.096746520996E+02 2.107663116455E+02 2.118057708740E+02 2.127955474854E+02
 2.137380065918E+02 2.146354064941E+02 2.154899139404E+02 2.163035736084E+02
 2.170783386230E+02 2.178160858154E+02 2.185185699463E+02 2.191874847412E+02
 2.198244476318E+02 2.204309692383E+02 2.210085144043E+02 2.215584716797E+02
 2.220821533203E+02 2.225808258057E+02 2.230556945801E+02 2.235078735352E+02
 2.239384613037E+02 2.243484954834E+02 2.247389526367E+02 2.251107635498E+02
 2.254648284912E+02 2.258020019531E+02 2.261230773926E+02 2.264288177490E+02
 2.267199707031E+02 2.269972381592E+02 2.272612609863E+02 2.275126953125E+02
 2.277521362305E+02 2.279801483154E+02 2.281972808838E+02 2.284040527344E+02
 2.286009521484E+02 2.287884674072E+02 2.289670257568E+02 2.291370849609E+02
 2.292990112305E+02 2.294532318115E+02 2.296000823975E+02 2.297399444580E+02
 2.298731536865E+02 2.300000000000E+02 2.300000000000E+02 2.300000000000E+02
 2.300000000000E+02 2.300000000000E+02 2.300000000000E+02 2.300000000000E+02
 2.300000000000E+02 2.300000000000E+02 2.300000000000E+02
 -1.150000000000E+01 -1.150000000000E+01 -1.150000000000E+01 -1.150000000000E+01
 -1.150000000000E+01 -1.150000000000E+01 -1.150000000000E+01 -1.150000000000E+01
 -1.150000000000E+01 -1.150000000000E+01 -1.150000000000E+01 -1.150000000000E+01
 -1.150000000000E+01 -1.150000000000E+01 -1.150000000000E+01 -1.150000000000E+01
 -1.150000000000E+01 -1.150000000000E+01 -1.150000000000E+01 -1.150000000000E+01
 -1.150000000000E+01 -1.150000000000E+01 -1.150000000000E+01 -1.150000000000E+01
 -1.150000000000E+01 -1.150000000000E+01 -1.150000000000E+01 -1.150000000000E+01
 -1.150000000000E+01 -1.150000000000E+01 -1.150000000000E+01 -1.150000000000E+01
 -1.150000000000E+01 -1.150000000000E+01 -1.150000000000E+01 -1.150000000000E+01
 -1.150000000000E+01 -1.150000000000E+01 -1.150000000000E+01 -1.150000000000E+01
 -1.150000000000E+01 -1.150000000000E+01 -1.150000000000E+01 -1.150000000000E+01
 -1.150000000000E+01 -1.150000000000E+01 -1.150000000000E+01 -1.150000000000E+01
 -1.150000000000E+01 -1.150000000000E+01 -1.150000000000E+01 -1.150000000000E+01
 -1.150000000000E+01 -1.150000000000E+01 -1.150000000000E+01 -1.150000000000E+01
 -1.150000000000E+01 -1.150000000000E+01 -1.150000000000E+01 -1.150000000000E+01
 -1.150000000000E+01 -1.150000000000E+01 -1.150000000000E+01 -1.150000000000E+01
 -1.150000000000E+01 -1.150000000000E+01 -1.150000000000E+01 -1.150000000000E+01
 -1.150000000000E+01 -1.150000000000E+01 -1.150000000000E+01 -1.150000000000E+01
 -1.150000000000E+01 -1.150000000000E+01 -1.150000000000E+01 -1.150000000000E+01
 -1.150000000000E+01 -1.150000000000E+01 -1.150000000000E+01 -1.150000000000E+01
 -1.150000000000E+01 -1.150000000000E+01 -1.150000000000E+01 -1.150000000000E+01
 -1.150000000000E+01 -1.150000000000E+01 -1.150000000000E+01 -1.150000000000E+01
 -1.150000000000E+01 -1.150000000000E+01 -1.150000000000E+01 -1.150000000000E+01
 -1.150000000000E+01 -1.150000000000E+01 -1.150000000000E+01 -1.150000000000E+01
 -1.150000000000E+01 -1.150000000000E+01 -1.150000000000E+01 -1.150000000000E+01
 -1.150000000000E+01 -1.150000000000E+01 -1.150000000000E+01 -1.150000000000E+01
 -1.150000000000E+01 -1.150000000000E+01 -1.150000000000E+01 -1.150000000000E+01
 -1.150000000000E+01 -1.150000000000E+01 -1.150000000000E+01 -1.150000000000E+01
 -1.150000000000E+01 -1.150000000000E+01 -1.150000000000E+01 -1.150000000000E+01
 -1.150000000000E+01 -1.150000000000E+01 -1.150000000000E+01 -1.150000000000E+01
 -1.150000000000E+01 -1.150000000000E+01 -1.150000000000E+01 -1.150000000000E+01
 -1.150000000000E+01 -1.150000000000E+01 -1.150000000000E+01 -1.150000000000E+01
 -1.150000000000E+01 -1.150000000000E+01 -1.150000000000E+01 -1.150000000000E+01
 -1.150000000000E+01 -1.150000000000E+01 -1.150000000000E+01 -1.150000000000E+01
 -1.150000000000E+01 -1.150000000000E+01 -1.150000000000E+01 -1.150000000000E+01
 -1.150000000000E+01 -1.150000000000E+01 -1.150000000000E+01 -1.150000000000E+01
 -1.150000000000E+01 -1.150000000000E+01 -1.150000000000E+01 -1.150000000000E+01
 -1.150000000000E+01 -1.150000000000E+01 -1.150000000000E+01 -1.150000000000E+01
 -1.150000000000E+01 -1.150000000000E+01 -1.150000000000E+01 -1.150000000000E+01
 -1.150000000000E+01 -1.150000000000E+01 -1.150000000000E+01 -1.150000000000E+01
 -1.150000000000E+01 -1.150000000000E+01 -1.150000000000E+01 -1.150000000000E+01
 -1.150000000000E+01 -1.150000000000E+01 -1.150000000000E+01 -1.150000000000E+01
 -1.150000000000E+01 -1.150000000000E+01 -1.150000000000E+01 -1.150000000000E+01
 -1.150000000000E+01 -1.150000000000E+01 -1.150000000000E+01 -1.150000000000E+01
 -1.150000000000E+01 -1.150000000000E+01 -1.150000000000E+01 -1.150000000000E+01
 -1.150000000000E+01 -1.150000000000E+01 -1.150000000000E+01 -1.150000000000E+01
 -1.150000000000E+01 -1.150000000000E+01 -1.150000000000E+01 -1.150000000000E+01
 -1.150000000000E+01 -1.150000000000E+01 -1.150000000000E+01 -1.150000000000E+01
 -1.150000000000E+01 -1.150000000000E+01 -1.150000000000E+01 -1.150000000000E+01
 -1.150000000000E+01 -1.150000000000E+01 -1.150000000000E+01 -1.150000000000E+01
 -1.150000000000E+01 -1.150000000000E+01 -1.150000000000E+01 -1.150000000000E+01
 -1.150000000000E+01 -1.150000000000E+01 -1.150000000000E+01 -1.150000000000E+01
 -1.150000000000E+01 -1.150000000000E+01 -1.150000000000E+01 -1.150000000000E+01
 -1.150000000000E+01 -1.150000000000E+01 -1.150000000000E+01 -1.150000000000E+01
 -1.150000000000E+01 -1.150000000000E+01 -1.150000000000E+01 -1.150000000000E+01
 -1.150000000000E+01 -1.150000000000E+01 -1.150000000000E+01 -1.150000000000E+01
 -1.150000000000E+01 -1.150000000000E+01 -1.150000000000E+01 -1.150000000000E+01
 -1.150000000000E+01 -1.150000000000E+01 -1.150000000000E+01 -1.150000000000E+01
 -1.150000000000E+01 -1.150000000000E+01 -1.150000000000E+01 -1.150000000000E+01
 -1.150000000000E+01 -1.150000000000E+01 -1.150000000000E+01 -1.150000000000E+01
 -1.150000000000E+01 -1.150000000000E+01 -1.150000000000E+01 -1.150000000000E+01
 -1.150000000000E+01 -1.150000000000E+01 -1.150000000000E+01 -1.150000000000E+01
 -1.150000000000E+01 -1.150000000000E+01 -1.150000000000E+01 -1.150000000000E+01
 -1.150000000000E+01 -1.150000000000E+01 -1.150000000000E+01 -1.150000000000E+01
 -1.150000000000E+01 -1.150000000000E+01 -1.150000000000E+01 -1.150000000000E+01
 -1.150000000000E+01 -1.150000000000E+01 -1.150000000000E+01 -1.150000000000E+01
 -1.150000000000E+01 -1.150000000000E+01 -1.150000000000E+01 -1.150000000000E+01
 -1.150000000000E+01 -1.150000000000E+01 -1.150000000000E+01 -1.150000000000E+01
 -1.150000000000E+01 -1.150000000000E+01 -1.150000000000E+01 -1.150000000000E+01
 -1.150000000000E+01 -1.150000000000E+01 -1.150000000000E+01 -1.150000000000E+01
 -1.150000000000E+01 -1.150000000000E+01 -1.150000000000E+01 -1.150000000000E+01
 -1.150000000000E+01 -1.150000000000E+01 -1.150000000000E+01 -1.150000000000E+01
 -1.150000000000E+01 -1.150000000000E+01 -1.150000000000E+01 -1.150000000000E+01
 -1.150000000000E+01 -1.150000000000E+01 -1.150000000000E+01 -1.150000000000E+01
 -1.150000000000E+01 -1.150000000000E+01 -1.150000000000E+01 -1.150000000000E+01
 -1.150000000000E+01 -1.150000000000E+01 -1.150000000000E+01 -1.150000000000E+01
 -1.150000000000E+01 -1.150000000000E+01 -1.150000000000E+01 -1.150000000000E+01
 -1.150000000000E+01 -1.150000000000E+01 -1.150000000000E+01 -1.150000000000E+01
 -1.150000000000E+01 -1.150000000000E+01 -1.150000000000E+01 -1.150000000000E+01
 -1.150000000000E+01 -1.150000000000E+01 -1.150000000000E+01 -1.150000000000E+01
 -1.150000000000E+01 -1.150000000000E+01 -1.150000000000E+01 -1.150000000000E+01
 -1.150000000000E+01 -1.150000000000E+01 -1.150000000000E+01 -1.150000000000E+01
 -1.150000000000E+01 -1.150000000000E+01 -1.150000000000E+01 -1.150000000000E+01
 -1.150000000000E+01 -1.150000000000E+01 -1.150000000000E+01 -1.150000000000E+01
 -1.150000000000E+01 -1.150000000000E+01 -1.150000000000E+01 -1.150000000000E+01
 -1.150000000000E+01 -1.150000000000E+01 -1.150000000000E+01 -1.150000000000E+01
 -1.150000000000E+01 -1.150000000000E+01 -1.150000000000E+01 -1.150000000000E+01
 -1.150000000000E+01 -1.150000000000E+01 -1.150000000000E+01 -1.150000000000E+01
 -1.150000000000E+01 -1.150000000000E+01 -1.150000000000E+01 -1.150000000000E+01
 -1.150000000000E+01 -1.150000000000E+01 -1.150000000000E+01 -1.150000000000E+01
 -1.150000000000E+01 -1.150000000000E+01 -1.150000000000E+01 -1.150000000000E+01
 -1.150000000000E+01 -1.150000000000E+01 -1.150000000000E+01 -1.150000000000E+01
 -1.150000000000E+01 -1.150000000000E+01 -1.150000000000E+01 -1.150000000000E+01
 -1.150000000000E+01 -1.150000000000E+01 -1.150000000000E+01 -1.150000000000E+01
 -1.150000000000E+01 -1.150000000000E+01 -1.150000000000E+01 -1.150000000000E+01
 -1.150000000000E+01 -1.150000000000E+01 -1.150000000000E+01 -1.150000000000E+01
 -1.150000000000E+01 -1.150000000000E+01 -1.150000000000E+01 -1.150000000000E+01
 -1.150000000000E+01 -1.150000000000E+01 -1.150000000000E+01 -1.150000000000E+01
 -1.150000000000E+01 -1.150000000000E+01 -1.150000000000E+01 -1.150000000000E+01
 -1.150000000000E+01 -1.150000000000E+01 -1.150000000000E+01 -1.150000000000E+01
 -1.150000000000E+01 -1.150000000000E+01 -1.150000000000E+01 -1.150000000000E+01
 -1.150000000000E+01 -1.150000000000E+01 -1.150000000000E+01 -1.150000000000E+01
 -1.150000000000E+01 -1.150000000000E+01 -1.150000000000E+01 -1.150000000000E+01
 -1.150000000000E+01 -1.150000000000E+01 -1.150000000000E+01
 5.749310255051E-01 5.994345545769E-01 6.251738071442E-01 6.522179841995E-01
 6.806222796440E-01 7.104380726814E-01 7.417241930962E-01 7.745548486710E-01
 8.090103864670E-01 8.451730608940E-01 8.831221461296E-01 9.229391217232E-01
 9.647076725960E-01 1.008518695831E+00 1.054468274117E+00 1.102656722069E+00
 1.153188228607E+00 1.206170558929E+00 1.261715650558E+00 1.319939374924E+00
 1.380965113640E+00 1.444924354553E+00 1.511954903603E+00 1.582200527191E+00
 1.655806660652E+00 1.732923626900E+00 1.813706874847E+00 1.898323535919E+00
 1.986953020096E+00 2.079783916473E+00 2.177013874054E+00 2.278849601746E+00
 2.385509014130E+00 2.497224092484E+00 2.614244222641E+00 2.736834049225E+00
 2.865270853043E+00 2.999844074249E+00 3.140862703323E+00 3.288660049438E+00
 3.443593740463E+00 3.606037616730E+00 3.776379585266E+00 3.955031156540E+00
 4.142429351807E+00 4.339031696320E+00 4.545289039612E+00 4.761666774750E+00
 4.988674163818E+00 5.226840019226E+00 5.476657867432E+00 5.738623619080E+00
 6.013267993927E+00 6.301106929779E+00 6.602613925934E+00 6.918246269226E+00
 7.248402595520E+00 7.593361377716E+00 7.953259468079E+00 8.328037261963E+00
 8.717315673828E+00 9.105917930603E+00 9.481045722961E+00 9.843924522400E+00
 1.019551277161E+01 1.053659248352E+01 1.086790275574E+01 1.119013977051E+01
 1.150400829315E+01 1.179394912720E+01 1.205754089355E+01 1.229735946655E+01
 1.251582431793E+01 1.271513175964E+01 1.289723968506E+01 1.306387329102E+01
 1.321655559540E+01 1.335663509369E+01 1.348531150818E+01 1.360365390778E+01
 1.371261787415E+01 1.381305408478E+01 1.390572738647E+01 1.399131774902E+01
 1.407043838501E+01 1.414364242554E+01 1.421143817902E+01 1.427428340912E+01
 1.433259487152E+01 1.438674545288E+01 1.443707370758E+01 1.448388671875E+01
 1.452746486664E+01 1.456806087494E+01 1.460777664185E+01 1.464661788940E+01
 1.468458938599E+01 1.472169876099E+01 1.475795459747E+01 1.479336547852E+01
 1.482793998718E+01 1.486168479919E+01 1.489460277557E+01 1.492669773102E+01
 1.495797252655E+01 1.498843002319E+01 1.501807689667E+01 1.504692077637E+01
 1.507496833801E+01 1.510222625732E+01 1.512870121002E+01 1.515439701080E+01
 1.517931842804E+01 1.520347023010E+01 1.522685527802E+01 1.524948024750E+01
 1.527134990692E+01 1.529246711731E+01 1.531283760071E+01 1.533246517181E+01
 1.535135364532E+01 1.536950683594E+01 1.538692760468E+01 1.540362167358E+01
 1.541959476471E+01 1.543484973907E+01 1.544939422607E+01 1.546322822571E+01
 1.547635650635E+01 1.548877811432E+01 1.550049781799E+01 1.551151752472E+01
 1.552184391022E+01 1.553148078918E+01 1.554043292999E+01 1.554870510101E+01
 1.555629730225E+01 1.556321048737E+01 1.556944751740E+01 1.557500934601E+01
 1.557989883423E+01 1.558411979675E+01 1.558767604828E+01 1.559056758881E+01
 1.559279823303E+01 1.559436893463E+01 1.559528255463E+01 1.559553813934E+01
 1.559513759613E+01 1.559408283234E+01 1.559237194061E+01 1.559000873566E+01
 1.558699321747E+01 1.558312702179E+01 1.557829666138E+01 1.557237625122E+01
 1.556522178650E+01 1.555667495728E+01 1.554656314850E+01 1.553469276428E+01
 1.552084922791E+01 1.550478267670E+01 1.548621177673E+01 1.546483516693E+01
 1.544033050537E+01 1.541232299805E+01 1.538037776947E+01 1.534401321411E+01
 1.530269432068E+01 1.525581932068E+01 1.520271110535E+01 1.514260959625E+01
 1.507468223572E+01 1.499788856506E+01 1.491110992432E+01 1.481311416626E+01
 1.470239257812E+01 1.457926559448E+01 1.444694709778E+01 1.430515480042E+01
 1.415353870392E+01 1.399170207977E+01 1.381921672821E+01 1.363559532166E+01
 1.344027233124E+01 1.323260688782E+01 1.301184940338E+01 1.277916431427E+01
 1.254367256165E+01 1.230582332611E+01 1.206599426270E+01 1.182448482513E+01
 1.158152389526E+01 1.133718109131E+01 1.109141731262E+01 1.084431838989E+01
 1.059584712982E+01 1.034606170654E+01 1.009504699707E+01 9.842757225037E+00
 9.589189529419E+00 9.334140777588E+00 9.077527046204E+00 8.819097518921E+00
 8.558695793152E+00 8.296084403992E+00 8.031049728394E+00 7.763377666473E+00
 7.492785930634E+00 7.218992233276E+00 6.941766738892E+00 6.660858631134E+00
 6.376046657562E+00 6.087165355682E+00 5.794117450714E+00 5.496901035309E+00
 5.195617198944E+00 4.890517234802E+00 4.581985950470E+00 4.270619392395E+00
 3.957277774811E+00 3.642961025238E+00 3.328911066055E+00 3.016479492188E+00
 2.707081079483E+00 2.402091264725E+00 2.102714061737E+00 1.809968471527E+00
 1.524716377258E+00 1.247619271278E+00 9.791846871376E-01 7.198365926743E-01
 4.699122905731E-01 2.297985702753E-01 8.482797797527E-15 -2.297552675009E-01
 -4.692314565182E-01 -7.162746191025E-01 -9.678152203560E-01 -1.220524191856E+00
 -1.471555829048E+00 -1.719033002853E+00 -1.962088346481E+00 -2.200634717941E+00
 -2.435093402863E+00 -2.666176795959E+00 -2.894651412964E+00 -3.121296167374E+00
 -3.346927642822E+00 -3.572262048721E+00 -3.798059225082E+00 -4.024977684021E+00
 -4.253633022308E+00 -4.484606742859E+00 -4.718366622925E+00 -4.955371856689E+00
 -5.195872306824E+00 -5.440127372742E+00 -5.688104629517E+00 -5.939792633057E+00
 -6.194983482361E+00 -6.453403472900E+00 -6.714658260345E+00 -6.978325843811E+00
 -7.243975162506E+00 -7.511214256287E+00 -7.779720783234E+00 -8.049136161804E+00
 -8.319252967834E+00 -8.589926719666E+00 -8.861015319824E+00 -9.132375717163E+00
 -9.403829574585E+00 -9.675153732300E+00 -9.945940971375E+00 -1.021564483643E+01
 -1.048353862762E+01 -1.074857234955E+01 -1.100954151154E+01 -1.126498699188E+01
 -1.151326560974E+01 -1.175263214111E+01 -1.198124599457E+01 -1.218925857544E+01
 -1.237535095215E+01 -1.254031658173E+01 -1.268481254578E+01 -1.280944824219E+01
 -1.291462612152E+01 -1.300073432922E+01 -1.306799030304E+01 -1.311662101746E+01
 -1.314674854279E+01 -1.315851497650E+01 -1.315210533142E+01 -1.312764835358E+01
 -1.308534908295E+01 -1.302543258667E+01 -1.294811916351E+01 -1.285372543335E+01
 -1.274253177643E+01 -1.261490249634E+01 -1.247126293182E+01 -1.231209278107E+01
 -1.213787841797E+01 -1.194926166534E+01 -1.174681282043E+01 -1.153114128113E+01
 -1.130288696289E+01 -1.106260490417E+01 -1.081092453003E+01 -1.054838657379E+01
 -1.027548599243E+01 -9.992745399475E+00 -9.700639724731E+00 -9.399642944336E+00
 -9.090250968933E+00 -8.772924423218E+00 -8.448170661926E+00 -8.116536140442E+00
 -7.778510093689E+00 -7.434649944305E+00 -7.085542678833E+00 -6.731761932373E+00
 -6.373878002167E+00 -6.012517929077E+00 -5.648360252380E+00 -5.282063961029E+00
 -4.914299011230E+00 -4.545846939087E+00 -4.177501201630E+00 -3.810112714767E+00
 -3.444615840912E+00 -3.082037687302E+00 -2.723543167114E+00 -2.370394706726E+00
 -2.023975849152E+00 -1.685832977295E+00 -1.357656002045E+00 -1.041214823723E+00
 -7.383943796158E-01 -4.512057602406E-01 -1.816638708115E-01 6.824335455894E-02
 2.966198325157E-01 5.016704797745E-01 6.797310709953E-01 8.255675435066E-01
 9.420748353004E-01 1.032179713249E+00 1.098843574524E+00 1.144961118698E+00
 1.173218965530E+00 1.186077356339E+00 1.185847520828E+00 1.174599170685E+00
 1.154152035713E+00 1.126106500626E+00 1.091863632202E+00 1.052639365196E+00
 1.009480118752E+00 9.632722139359E-01 9.147683382034E-01 8.646025061607E-01
 8.133111000061E-01 7.613448500633E-01 7.090821862221E-01 6.568399667740E-01
 6.048793792725E-01 5.534188747406E-01 5.026363730431E-01 4.526777267456E-01
 4.036627113819E-01 3.556872308254E-01 3.088280558586E-01 2.631431221962E-01
 2.186731100082E-01 1.754477024078E-01 1.334866434336E-01 9.280081093311E-02
 5.339438095689E-02 1.526596862823E-02 -2.158896438777E-02 -5.718007311225E-02
 -9.152265638113E-02 -1.246415823698E-01 -1.565657109022E-01 -1.873238980770E-01
 -2.169436961412E-01 -2.454499602318E-01 -2.728688716888E-01 -2.992283999920E-01
 -3.245599567890E-01 -3.488967716694E-01 -3.722711801529E-01 -3.947159945965E-01
 -4.162670075893E-01 -4.369579553604E-01 -4.568205773830E-01 -4.758774936199E-01
 -4.941479563713E-01 -5.116518735886E-01 -5.284015536308E-01 -5.444064140320E-01
 -5.596804022789E-01 -5.742409825325E-01 -4.465552270412E-01 -3.188694417477E-01
 -1.911836713552E-01 -6.349788606167E-02 6.418789178133E-02 1.918736696243E-01
 3.195594549179E-01 4.472452104092E-01 5.749310255051E-01
 5.026470497251E-02 1.170701310039E-01 9.648802131414E-02 9.588554501534E-02
 9.578126668930E-02 9.572800993919E-02 9.545472264290E-02 9.496549516916E-02
 9.429745376110E-02 9.348204731941E-02 9.253067523241E-02 9.147405624390E-02
 9.031233191490E-02 8.903830498457E-02 8.766847848892E-02 8.619451522827E-02
 8.460923284292E-02 8.292433619499E-02 8.113078773022E-02 7.921937853098E-02
 7.719990611076E-02 7.506028562784E-02 7.279055565596E-02 7.039828598499E-02
 6.787268817425E-02 6.520064175129E-02 6.239416822791E-02 5.943199619651E-02
 5.632852762938E-02 5.304753780365E-02 4.960973933339E-02 4.598006606102E-02
 4.216441884637E-02 3.814547136426E-02 3.391714766622E-02 2.946281433105E-02
 2.476585842669E-02 1.982640847564E-02 1.461832225323E-02 9.128772653639E-03
 3.324069781229E-03 -2.805628115311E-03 -9.346572682261E-03 -1.621834002435E-02
 -2.347953058779E-02 -3.125345706940E-02 -3.945235535502E-02 -4.823957011104E-02
 -5.757188051939E-02 -6.759918481112E-02 -7.832521200180E-02 -8.973610401154E-02
 -1.022256985307E-01 -1.154992207885E-01 -1.297055780888E-01 -1.452684998512E-01
 -1.619676202536E-01 -1.804272979498E-01 -2.002990543842E-01 -2.219069302082E-01
 -2.456725537777E-01 -2.705994248390E-01 -2.958939075470E-01 -3.213067054749E-01
 -3.469825387001E-01 -3.722671866417E-01 -3.973574936390E-01 -4.216979742050E-01
 -4.452427923679E-01 -4.664586782455E-01 -4.850847423077E-01 -5.013976693153E-01
 -5.156423449516E-01 -5.280626416206E-01 -5.388754606247E-01 -5.482736825943E-01
 -5.563986301422E-01 -5.634021162987E-01 -5.694264173508E-01 -5.745622515678E-01
 -5.789196491241E-01 -5.825861096382E-01 -5.856417417526E-01 -5.881522893906E-01
 -5.901839137077E-01 -5.917988419533E-01 -5.930569171906E-01 -5.940135121346E-01
 -5.947157144547E-01 -5.952060222626E-01 -5.955225229263E-01 -5.957009792328E-01
 -5.957788825035E-01 -5.957314968109E-01 -5.956338047981E-01 -5.954917669296E-01
 -5.953157544136E-01 -5.951238870621E-01 -5.949416756630E-01 -5.947982668877E-01
 -5.947254300117E-01 -5.947575569153E-01 -5.949318408966E-01 -5.952912569046E-01
 -5.958868265152E-01 -5.967797636986E-01 -5.980431437492E-01 -5.997641682625E-01
 -6.020436882973E-01 -6.050010323524E-01 -6.087858080864E-01 -6.135801076889E-01
 -6.196057796478E-01 -6.271369457245E-01 -6.365350484848E-01 -6.483329534531E-01
 -6.634813547134E-01 -6.836662292480E-01 -7.112986445427E-01 -7.487628459930E-01
 -7.962173819542E-01 -8.485286235809E-01 -9.038487672806E-01 -9.586557149887E-01
 -1.008590698242E+00 -1.050350666046E+00 -1.082036972046E+00 -1.103947639465E+00
 -1.117874026299E+00 -1.126113891602E+00 -1.130702018738E+00 -1.133131861687E+00
 -1.134365081787E+00 -1.134968280792E+00 -1.135252237320E+00 -1.135376930237E+00
 -1.135421156883E+00 -1.135423541069E+00 -1.135403752327E+00 -1.135373353958E+00
 -1.135340809822E+00 -1.135311961174E+00 -1.135289430618E+00 -1.135273098946E+00
 -1.135261774063E+00 -1.135255575180E+00 -1.135254621506E+00 -1.135258674622E+00
 -1.135267853737E+00 -1.135283589363E+00 -1.135308623314E+00 -1.135359168053E+00
 -1.135343551636E+00 -1.135373473167E+00 -1.135430097580E+00 -1.135496139526E+00
 -1.135565876961E+00 -1.135643601418E+00 -1.135738730431E+00 -1.135857939720E+00
 -1.135995030403E+00 -1.136135816574E+00 -1.136281728745E+00 -1.136460304260E+00
 -1.136695265770E+00 -1.136972069740E+00 -1.137271046638E+00 -1.137596249580E+00
 -1.137962579727E+00 -1.138381004333E+00 -1.138849973679E+00 -1.139386177063E+00
 -1.139966845512E+00 -1.140561580658E+00 -1.141210794449E+00 -1.141883015633E+00
 -1.142677187920E+00 -1.143724918365E+00 -1.144679307938E+00 -1.145739555359E+00
 -1.146982312202E+00 -1.148443579674E+00 -1.150143384933E+00 -1.152044296265E+00
 -1.154056429863E+00 -1.156046390533E+00 -1.157983064651E+00 -1.160267353058E+00
 -1.162122011185E+00 -1.163924694061E+00 -1.165686488152E+00 -1.167216420174E+00
 -1.168272137642E+00 -1.168531298637E+00 -1.167907595634E+00 -1.166354179382E+00
 -1.163820862770E+00 -1.160511255264E+00 -1.156482100487E+00 -1.151636004448E+00
 -1.145660519600E+00 -1.138118505478E+00 -1.128406763077E+00 -1.116461873055E+00
 -1.102806210518E+00 -1.087099790573E+00 -1.068353891373E+00 -1.045648574829E+00
 -1.018908023834E+00 -9.882895946503E-01 -9.532913565636E-01 -9.132722020149E-01
 -8.678185939789E-01 -8.160233497620E-01 -7.565644383430E-01 -6.877522468567E-01
 -6.091070175171E-01 -5.216468572617E-01 -4.257228672504E-01 -3.218699097633E-01
 -2.109867781401E-01 -9.451252222061E-02 2.529046684504E-02 1.459127515554E-01