TITLE = "015.01" 
 VARIABLES = "GRID_LEVEL"  "GRID_SIZE"  "GRID_FAC"  "MACH"  "REY"  "ALPHA"   "CL_TOT"    "CD_TOT"     "CM_TOT"     "CL_WING"     "CD_WING"     "CM_WING"     "CD_PR"      "CD_SF"      "CL_TAIL"    "CD_TAIL"    "CM_TAIL"    "CL_FUS"    "CD_FUS"     "CM_FUS"    "CL_NAC"    "CD_NAC"     "CM_NAC"    "CL_PY"     "CD_PY"      "CM_PY"     "CPU_Hours"  "DELTAT"  "CTUSTART"  "CTUAVG"   "Q/E"
DATASETAUXDATA ParticipantID="015"
DATASETAUXDATA SubmissionDate="2024-11-06" 
DATASETAUXDATA Name="TC Wong" 
DATASETAUXDATA Email="tin.c.wong.civ@army.mil" 
DATASETAUXDATA Institution="US Army/SRD" 
DATASETAUXDATA SolverName="FUN3D Version 14.1" 
DATASETAUXDATA BasicAlgorithm="RANS" 
DATASETAUXDATA TurbulenceModel="SA-RC" 
DATASETAUXDATA GridId="Cadence" 
DATASETAUXDATA Notes="-999"
ZONE T="015.01 GRID LEVEL 1" 
AUXDATA Tstatic         = "28.17 deg F" 
AUXDATA Deltat          = "-999" 
AUXDATA GridFileName    = "Cadence_V1"
           1       63480  6.284085055495366E-004  0.730000000000000     
   3000000.00000000        1.36000000000000       0.758980947532754     
  1.326109812426308E-002 -0.127981621464867             -999        -999
        -999  7.217658141661297E-003  6.043439982532514E-003        -999
        -999        -999        -999        -999        -999        -999
        -999        -999        -999        -999        -999        -999
        -999        -999        -999        -999
           1       63480  6.284085055495366E-004  0.730000000000000     
   3000000.00000000        1.50000000000000       0.787900925256251     
  1.438865373199158E-002 -0.128711071026395             -999        -999
        -999  8.406434242016203E-003  5.982219489990792E-003        -999
        -999        -999        -999        -999        -999        -999
        -999        -999        -999        -999        -999        -999
        -999        -999        -999        -999
           1       63480  6.284085055495366E-004  0.730000000000000     
   3000000.00000000        2.50000000000000       0.922916660252074     
  2.763879661028984E-002 -0.131344943548630             -999        -999
        -999  2.215568294221731E-002  5.483113668080373E-003        -999
        -999        -999        -999        -999        -999        -999
        -999        -999        -999        -999        -999        -999
        -999        -999        -999        -999
           1       63480  6.284085055495366E-004  0.730000000000000     
   3000000.00000000        3.00000000000000       0.934124705918036     
  3.485005216563288E-002 -0.125336750900120             -999        -999
        -999  2.959722553447514E-002  5.252826631051579E-003        -999
        -999        -999        -999        -999        -999        -999
        -999        -999        -999        -999        -999        -999
        -999        -999        -999        -999
           1       63480  6.284085055495366E-004  0.730000000000000     
   3000000.00000000        3.10000000000000       0.933331269777443     
  3.628611564750848E-002 -0.123837389635433             -999        -999
        -999  3.108007822300136E-002  5.206037424479896E-003        -999
        -999        -999        -999        -999        -999        -999
        -999        -999        -999        -999        -999        -999
        -999        -999        -999        -999
ZONE T="015.01 GRID LEVEL 2" 
AUXDATA Tstatic         = "28.17 deg F" 
AUXDATA Deltat          = "-999" 
AUXDATA GridFileName    = "Cadence_V2"
           2      122630  4.051372549459162E-004  0.730000000000000     
   3000000.00000000        1.36000000000000       0.768184838999907     
  1.333034531999999E-002 -0.129873204600008             -999        -999
        -999  7.292642384000854E-003  6.037702941000401E-003        -999
        -999        -999        -999        -999        -999        -999
        -999        -999        -999        -999        -999        -999
        -999        -999        -999        -999
           2      122630  4.051372549459162E-004  0.730000000000000     
   3000000.00000000        1.50000000000000       0.797548340100065     
  1.452116280000010E-002 -0.130800213500002             -999        -999
        -999  8.543700155999331E-003  5.977462642999380E-003        -999
        -999        -999        -999        -999        -999        -999
        -999        -999        -999        -999        -999        -999
        -999        -999        -999        -999
           2      122630  4.051372549459162E-004  0.730000000000000     
   3000000.00000000        2.50000000000000       0.932496605980986     
  2.811364839684815E-002 -0.133807048238190             -999        -999
        -999  2.262602524905373E-002  5.487623147679693E-003        -999
        -999        -999        -999        -999        -999        -999
        -999        -999        -999        -999        -999        -999
        -999        -999        -999        -999
           2      122630  4.051372549459162E-004  0.730000000000000     
   3000000.00000000        3.00000000000000       0.946269407930254     
  3.560018927931025E-002 -0.128483164877864             -999        -999
        -999  3.034051752410910E-002  5.259671755294736E-003        -999
        -999        -999        -999        -999        -999        -999
        -999        -999        -999        -999        -999        -999
        -999        -999        -999        -999
           2      122630  4.051372549459162E-004  0.730000000000000     
   3000000.00000000        3.10000000000000       0.946054591462489     
  3.709270273272336E-002 -0.127120143290322             -999        -999
        -999  3.187966748705856E-002  5.213035245621279E-003        -999
        -999        -999        -999        -999        -999        -999
        -999        -999        -999        -999        -999        -999
        -999        -999        -999        -999
ZONE T="015.01 GRID LEVEL 3" 
AUXDATA Tstatic         = "28.17 deg F" 
AUXDATA Deltat          = "-999" 
AUXDATA GridFileName    = "Cadence_V3"
           3      209778  2.832435569688000E-004  0.730000000000000     
   3000000.00000000        1.36000000000000       0.771016668095255     
  1.333366371999911E-002 -0.130446364000012             -999        -999
        -999  7.296450489967901E-003  6.037213226999730E-003        -999
        -999        -999        -999        -999        -999        -999
        -999        -999        -999        -999        -999        -999
        -999        -999        -999        -999
           3      209778  2.832435569688000E-004  0.730000000000000     
   3000000.00000000        1.50000000000000       0.800226695853281     
  1.453685925857201E-002 -0.131367217569513             -999        -999
        -999  8.560773249369009E-003  5.976086009182261E-003        -999
        -999        -999        -999        -999        -999        -999
        -999        -999        -999        -999        -999        -999
        -999        -999        -999        -999
           3      209778  2.832435569688000E-004  0.730000000000000     
   3000000.00000000        2.50000000000000       0.933943668414516     
  2.812697813772987E-002 -0.134105479861303             -999        -999
        -999  2.264043674284644E-002  5.486541394774928E-003        -999
        -999        -999        -999        -999        -999        -999
        -999        -999        -999        -999        -999        -999
        -999        -999        -999        -999
           3      209778  2.832435569688000E-004  0.730000000000000     
   3000000.00000000        3.00000000000000       0.947974099751690     
  3.566520345809031E-002 -0.128877547278164             -999        -999
        -999  3.040180673516705E-002  5.263396722902425E-003        -999
        -999        -999        -999        -999        -999        -999
        -999        -999        -999        -999        -999        -999
        -999        -999        -999        -999
           3      209778  2.832435569688000E-004  0.730000000000000     
   3000000.00000000        3.10000000000000       0.947652138630976     
  3.715200574550690E-002 -0.127484518614457             -999        -999
        -999  3.193498301390919E-002  5.217022731672865E-003        -999
        -999        -999        -999        -999        -999        -999
        -999        -999        -999        -999        -999        -999
        -999        -999        -999        -999
ZONE T="015.01 GRID LEVEL 4" 
AUXDATA Tstatic         = "28.17 deg F" 
AUXDATA Deltat          = "-999" 
AUXDATA GridFileName    = "Cadence_V4"
           4      337510  2.062887622298316E-004  0.730000000000000     
   3000000.00000000        1.36000000000000       0.772064373843080     
  1.331981312775495E-002 -0.130646046045161             -999        -999
        -999  7.284174576216534E-003  6.035638552866444E-003        -999
        -999        -999        -999        -999        -999        -999
        -999        -999        -999        -999        -999        -999
        -999        -999        -999        -999
           4      337510  2.062887622298316E-004  0.730000000000000     
   3000000.00000000        1.50000000000000       0.801388349245792     
  1.451685415055585E-002 -0.131586965021156             -999        -999
        -999  8.546087747337157E-003  5.970766403227762E-003        -999
        -999        -999        -999        -999        -999        -999
        -999        -999        -999        -999        -999        -999
        -999        -999        -999        -999
           4      337510  2.062887622298316E-004  0.730000000000000     
   3000000.00000000        2.50000000000000       0.933126187228772     
  2.805149604048390E-002 -0.133899105011238             -999        -999
        -999  2.256416610129174E-002  5.487329939256952E-003        -999
        -999        -999        -999        -999        -999        -999
        -999        -999        -999        -999        -999        -999
        -999        -999        -999        -999
           4      337510  2.062887622298316E-004  0.730000000000000     
   3000000.00000000        3.00000000000000       0.946122559570566     
  3.556229188684666E-002 -0.128526515481784             -999        -999
        -999  3.030289139760847E-002  5.259400489251948E-003        -999
        -999        -999        -999        -999        -999        -999
        -999        -999        -999        -999        -999        -999
        -999        -999        -999        -999
           4      337510  2.062887622298316E-004  0.730000000000000     
   3000000.00000000        3.10000000000000       0.945758047354747     
  3.706494842999000E-002 -0.127174166053189             -999        -999
        -999  3.185223244790848E-002  5.212715982056996E-003        -999
        -999        -999        -999        -999        -999        -999
        -999        -999        -999        -999        -999        -999
        -999        -999        -999        -999
ZONE T="015.01 GRID LEVEL 5" 
AUXDATA Tstatic         = "28.17 deg F" 
AUXDATA Deltat          = "-999" 
AUXDATA GridFileName    = "Cadence_V5"
           5      522458  1.541578853475328E-004  0.730000000000000     
   3000000.00000000        1.36000000000000       0.772847569693782     
  1.330396958811465E-002 -0.130773412953724             -999        -999
        -999  7.269967351220424E-003  6.034002235663951E-003        -999
        -999        -999        -999        -999        -999        -999
        -999        -999        -999        -999        -999        -999
        -999        -999        -999        -999
           5      522458  1.541578853475328E-004  0.730000000000000     
   3000000.00000000        1.50000000000000       0.801802413837250     
  1.450908904596097E-002 -0.131657786093299             -999        -999
        -999  8.537217207347196E-003  5.971871838947062E-003        -999
        -999        -999        -999        -999        -999        -999
        -999        -999        -999        -999        -999        -999
        -999        -999        -999        -999
           5      522458  1.541578853475328E-004  0.730000000000000     
   3000000.00000000        2.50000000000000       0.932887811348696     
  2.801381113741329E-002 -0.133814762847410             -999        -999
        -999  2.252848994798513E-002  5.485321189594426E-003        -999
        -999        -999        -999        -999        -999        -999
        -999        -999        -999        -999        -999        -999
        -999        -999        -999        -999
           5      522458  1.541578853475328E-004  0.730000000000000     
   3000000.00000000        3.00000000000000       0.945841287490739     
  3.555556457328087E-002 -0.128513849481496             -999        -999
        -999  3.030046345944663E-002  5.255101113849958E-003        -999
        -999        -999        -999        -999        -999        -999
        -999        -999        -999        -999        -999        -999
        -999        -999        -999        -999
           5      522458  1.541578853475328E-004  0.730000000000000     
   3000000.00000000        3.10000000000000       0.945720626870705     
  3.708436510982831E-002 -0.127245880652661             -999        -999
        -999  3.187670215098228E-002  5.207662958827295E-003        -999
        -999        -999        -999        -999        -999        -999
        -999        -999        -999        -999        -999        -999
        -999        -999        -999        -999
ZONE T="015.01 GRID LEVEL 6" 
AUXDATA Tstatic         = "28.17 deg F" 
AUXDATA Deltat          = "-999" 
AUXDATA GridFileName    = "Cadence_V6"
           6      790852  1.169328464932121E-004  0.730000000000000     
   3000000.00000000        1.36000000000000       0.773577474446363     
  1.331766358331463E-002 -0.130914689109605             -999        -999
        -999  7.284389694814074E-003  6.033273888492793E-003        -999
        -999        -999        -999        -999        -999        -999
        -999        -999        -999        -999        -999        -999
        -999        -999        -999        -999
           6      790852  1.169328464932121E-004  0.730000000000000     
   3000000.00000000        1.50000000000000       0.802683709313690     
  1.452057396533765E-002 -0.131825638280858             -999        -999
        -999  8.552483684276073E-003  5.968090281113334E-003        -999
        -999        -999        -999        -999        -999        -999
        -999        -999        -999        -999        -999        -999
        -999        -999        -999        -999
           6      790852  1.169328464932121E-004  0.730000000000000     
   3000000.00000000        2.50000000000000       0.934013840310232     
  2.813837596102172E-002 -0.134221221930939             -999        -999
        -999  2.265458868772192E-002  5.483787273322346E-003        -999
        -999        -999        -999        -999        -999        -999
        -999        -999        -999        -999        -999        -999
        -999        -999        -999        -999
           6      790852  1.169328464932121E-004  0.730000000000000     
   3000000.00000000        3.00000000000000       0.949831464512835     
  3.590617157839120E-002 -0.129699829491817             -999        -999
        -999  3.065541142041948E-002  5.250760158015217E-003        -999
        -999        -999        -999        -999        -999        -999
        -999        -999        -999        -999        -999        -999
        -999        -999        -999        -999
           6      790852  1.169328464932121E-004  0.730000000000000     
   3000000.00000000        3.10000000000000       0.968721322689113     
  3.861167671562676E-002 -0.133331665631940             -999        -999
        -999  3.345215943895679E-002  5.159517276678179E-003        -999
        -999        -999        -999        -999        -999        -999
        -999        -999        -999        -999        -999        -999
        -999        -999        -999        -999
ZONE T="015.01 ALPHA 1.36" 
AUXDATA Tstatic         = "28.17 deg F"
AUXDATA Deltat          = "-999" 
AUXDATA GridFileName    = "Cadence"
           1       63480  6.284085055495366E-004  0.730000000000000     
   3000000.00000000        1.36000000000000       0.758980947532754     
  1.326109812426308E-002 -0.127981621464867             -999        -999
        -999  7.217658141661297E-003  6.043439982532514E-003        -999
        -999        -999        -999        -999        -999        -999
        -999        -999        -999        -999        -999        -999
        -999        -999        -999        -999
           2      122630  4.051372549459162E-004  0.730000000000000     
   3000000.00000000        1.36000000000000       0.768184838999907     
  1.333034531999999E-002 -0.129873204600008             -999        -999
        -999  7.292642384000854E-003  6.037702941000401E-003        -999
        -999        -999        -999        -999        -999        -999
        -999        -999        -999        -999        -999        -999
        -999        -999        -999        -999
           3      209778  2.832435569688000E-004  0.730000000000000     
   3000000.00000000        1.36000000000000       0.771016668095255     
  1.333366371999911E-002 -0.130446364000012             -999        -999
        -999  7.296450489967901E-003  6.037213226999730E-003        -999
        -999        -999        -999        -999        -999        -999
        -999        -999        -999        -999        -999        -999
        -999        -999        -999        -999
           4      337510  2.062887622298316E-004  0.730000000000000     
   3000000.00000000        1.36000000000000       0.772064373843080     
  1.331981312775495E-002 -0.130646046045161             -999        -999
        -999  7.284174576216534E-003  6.035638552866444E-003        -999
        -999        -999        -999        -999        -999        -999
        -999        -999        -999        -999        -999        -999
        -999        -999        -999        -999
           5      522458  1.541578853475328E-004  0.730000000000000     
   3000000.00000000        1.36000000000000       0.772847569693782     
  1.330396958811465E-002 -0.130773412953724             -999        -999
        -999  7.269967351220424E-003  6.034002235663951E-003        -999
        -999        -999        -999        -999        -999        -999
        -999        -999        -999        -999        -999        -999
        -999        -999        -999        -999
           6      790852  1.169328464932121E-004  0.730000000000000     
   3000000.00000000        1.36000000000000       0.773577474446363     
  1.331766358331463E-002 -0.130914689109605             -999        -999
        -999  7.284389694814074E-003  6.033273888492793E-003        -999
        -999        -999        -999        -999        -999        -999
        -999        -999        -999        -999        -999        -999
        -999        -999        -999        -999
ZONE T="015.01 ALPHA 1.5" 
AUXDATA Tstatic         = "28.17 deg F"
AUXDATA Deltat          = "-999" 
AUXDATA GridFileName    = "Cadence"
           1       63480  6.284085055495366E-004  0.730000000000000     
   3000000.00000000        1.50000000000000       0.787900925256251     
  1.438865373199158E-002 -0.128711071026395             -999        -999
        -999  8.406434242016203E-003  5.982219489990792E-003        -999
        -999        -999        -999        -999        -999        -999
        -999        -999        -999        -999        -999        -999
        -999        -999        -999        -999
           2      122630  4.051372549459162E-004  0.730000000000000     
   3000000.00000000        1.50000000000000       0.797548340100065     
  1.452116280000010E-002 -0.130800213500002             -999        -999
        -999  8.543700155999331E-003  5.977462642999380E-003        -999
        -999        -999        -999        -999        -999        -999
        -999        -999        -999        -999        -999        -999
        -999        -999        -999        -999
           3      209778  2.832435569688000E-004  0.730000000000000     
   3000000.00000000        1.50000000000000       0.800226695853281     
  1.453685925857201E-002 -0.131367217569513             -999        -999
        -999  8.560773249369009E-003  5.976086009182261E-003        -999
        -999        -999        -999        -999        -999        -999
        -999        -999        -999        -999        -999        -999
        -999        -999        -999        -999
           4      337510  2.062887622298316E-004  0.730000000000000     
   3000000.00000000        1.50000000000000       0.801388349245792     
  1.451685415055585E-002 -0.131586965021156             -999        -999
        -999  8.546087747337157E-003  5.970766403227762E-003        -999
        -999        -999        -999        -999        -999        -999
        -999        -999        -999        -999        -999        -999
        -999        -999        -999        -999
           5      522458  1.541578853475328E-004  0.730000000000000     
   3000000.00000000        1.50000000000000       0.801802413837250     
  1.450908904596097E-002 -0.131657786093299             -999        -999
        -999  8.537217207347196E-003  5.971871838947062E-003        -999
        -999        -999        -999        -999        -999        -999
        -999        -999        -999        -999        -999        -999
        -999        -999        -999        -999
           6      790852  1.169328464932121E-004  0.730000000000000     
   3000000.00000000        1.50000000000000       0.802683709313690     
  1.452057396533765E-002 -0.131825638280858             -999        -999
        -999  8.552483684276073E-003  5.968090281113334E-003        -999
        -999        -999        -999        -999        -999        -999
        -999        -999        -999        -999        -999        -999
        -999        -999        -999        -999
ZONE T="015.01 ALPHA 2.5" 
AUXDATA Tstatic         = "28.17 deg F"
AUXDATA Deltat          = "-999" 
AUXDATA GridFileName    = "Cadence"
           1       63480  6.284085055495366E-004  0.730000000000000     
   3000000.00000000        2.50000000000000       0.922916660252074     
  2.763879661028984E-002 -0.131344943548630             -999        -999
        -999  2.215568294221731E-002  5.483113668080373E-003        -999
        -999        -999        -999        -999        -999        -999
        -999        -999        -999        -999        -999        -999
        -999        -999        -999        -999
           2      122630  4.051372549459162E-004  0.730000000000000     
   3000000.00000000        2.50000000000000       0.932496605980986     
  2.811364839684815E-002 -0.133807048238190             -999        -999
        -999  2.262602524905373E-002  5.487623147679693E-003        -999
        -999        -999        -999        -999        -999        -999
        -999        -999        -999        -999        -999        -999
        -999        -999        -999        -999
           3      209778  2.832435569688000E-004  0.730000000000000     
   3000000.00000000        2.50000000000000       0.933943668414516     
  2.812697813772987E-002 -0.134105479861303             -999        -999
        -999  2.264043674284644E-002  5.486541394774928E-003        -999
        -999        -999        -999        -999        -999        -999
        -999        -999        -999        -999        -999        -999
        -999        -999        -999        -999
           4      337510  2.062887622298316E-004  0.730000000000000     
   3000000.00000000        2.50000000000000       0.933126187228772     
  2.805149604048390E-002 -0.133899105011238             -999        -999
        -999  2.256416610129174E-002  5.487329939256952E-003        -999
        -999        -999        -999        -999        -999        -999
        -999        -999        -999        -999        -999        -999
        -999        -999        -999        -999
           5      522458  1.541578853475328E-004  0.730000000000000     
   3000000.00000000        2.50000000000000       0.932887811348696     
  2.801381113741329E-002 -0.133814762847410             -999        -999
        -999  2.252848994798513E-002  5.485321189594426E-003        -999
        -999        -999        -999        -999        -999        -999
        -999        -999        -999        -999        -999        -999
        -999        -999        -999        -999
           6      790852  1.169328464932121E-004  0.730000000000000     
   3000000.00000000        2.50000000000000       0.934013840310232     
  2.813837596102172E-002 -0.134221221930939             -999        -999
        -999  2.265458868772192E-002  5.483787273322346E-003        -999
        -999        -999        -999        -999        -999        -999
        -999        -999        -999        -999        -999        -999
        -999        -999        -999        -999
ZONE T="015.01 ALPHA 3.0" 
AUXDATA Tstatic         = "28.17 deg F"
AUXDATA Deltat          = "-999" 
AUXDATA GridFileName    = "Cadence"
           1       63480  6.284085055495366E-004  0.730000000000000     
   3000000.00000000        3.00000000000000       0.934124705918036     
  3.485005216563288E-002 -0.125336750900120             -999        -999
        -999  2.959722553447514E-002  5.252826631051579E-003        -999
        -999        -999        -999        -999        -999        -999
        -999        -999        -999        -999        -999        -999
        -999        -999        -999        -999
           2      122630  4.051372549459162E-004  0.730000000000000     
   3000000.00000000        3.00000000000000       0.946269407930254     
  3.560018927931025E-002 -0.128483164877864             -999        -999
        -999  3.034051752410910E-002  5.259671755294736E-003        -999
        -999        -999        -999        -999        -999        -999
        -999        -999        -999        -999        -999        -999
        -999        -999        -999        -999
           3      209778  2.832435569688000E-004  0.730000000000000     
   3000000.00000000        3.00000000000000       0.947974099751690     
  3.566520345809031E-002 -0.128877547278164             -999        -999
        -999  3.040180673516705E-002  5.263396722902425E-003        -999
        -999        -999        -999        -999        -999        -999
        -999        -999        -999        -999        -999        -999
        -999        -999        -999        -999
           4      337510  2.062887622298316E-004  0.730000000000000     
   3000000.00000000        3.00000000000000       0.946122559570566     
  3.556229188684666E-002 -0.128526515481784             -999        -999
        -999  3.030289139760847E-002  5.259400489251948E-003        -999
        -999        -999        -999        -999        -999        -999
        -999        -999        -999        -999        -999        -999
        -999        -999        -999        -999
           5      522458  1.541578853475328E-004  0.730000000000000     
   3000000.00000000        3.00000000000000       0.945841287490739     
  3.555556457328087E-002 -0.128513849481496             -999        -999
        -999  3.030046345944663E-002  5.255101113849958E-003        -999
        -999        -999        -999        -999        -999        -999
        -999        -999        -999        -999        -999        -999
        -999        -999        -999        -999
           6      790852  1.169328464932121E-004  0.730000000000000     
   3000000.00000000        3.00000000000000       0.949831464512835     
  3.590617157839120E-002 -0.129699829491817             -999        -999
        -999  3.065541142041948E-002  5.250760158015217E-003        -999
        -999        -999        -999        -999        -999        -999
        -999        -999        -999        -999        -999        -999
        -999        -999        -999        -999
ZONE T="015.01 ALPHA 3.1" 
AUXDATA Tstatic         = "28.17 deg F"
AUXDATA Deltat          = "-999" 
AUXDATA GridFileName    = "Cadence"
           1       63480  6.284085055495366E-004  0.730000000000000     
   3000000.00000000        3.10000000000000       0.933331269777443     
  3.628611564750848E-002 -0.123837389635433             -999        -999
        -999  3.108007822300136E-002  5.206037424479896E-003        -999
        -999        -999        -999        -999        -999        -999
        -999        -999        -999        -999        -999        -999
        -999        -999        -999        -999
           2      122630  4.051372549459162E-004  0.730000000000000     
   3000000.00000000        3.10000000000000       0.946054591462489     
  3.709270273272336E-002 -0.127120143290322             -999        -999
        -999  3.187966748705856E-002  5.213035245621279E-003        -999
        -999        -999        -999        -999        -999        -999
        -999        -999        -999        -999        -999        -999
        -999        -999        -999        -999
           3      209778  2.832435569688000E-004  0.730000000000000     
   3000000.00000000        3.10000000000000       0.947652138630976     
  3.715200574550690E-002 -0.127484518614457             -999        -999
        -999  3.193498301390919E-002  5.217022731672865E-003        -999
        -999        -999        -999        -999        -999        -999