TITLE = "015.02" 
 VARIABLES = "GRID_LEVEL"  "GRID_SIZE"  "GRID_FAC"  "MACH"  "REY"  "ALPHA"   "CL_TOT"    "CD_TOT"     "CM_TOT"     "CL_WING"     "CD_WING"     "CM_WING"     "CD_PR"      "CD_SF"      "CL_TAIL"    "CD_TAIL"    "CM_TAIL"    "CL_FUS"    "CD_FUS"     "CM_FUS"    "CL_NAC"    "CD_NAC"     "CM_NAC"    "CL_PY"     "CD_PY"      "CM_PY"     "CPU_Hours"  "DELTAT"  "CTUSTART"  "CTUAVG"   "Q/E"
DATASETAUXDATA ParticipantID="015"
DATASETAUXDATA SubmissionDate="2024-11-06" 
DATASETAUXDATA Name="TC Wong" 
DATASETAUXDATA Email="tin.c.wong.civ@army.mil" 
DATASETAUXDATA Institution="US Army/SRD" 
DATASETAUXDATA SolverName="FUN3D Version 14.1" 
DATASETAUXDATA BasicAlgorithm="RANS" 
DATASETAUXDATA TurbulenceModel="sstv" 
DATASETAUXDATA GridId="Cadence" 
DATASETAUXDATA Notes="-999"
ZONE T="015.02 GRID LEVEL 1" 
AUXDATA Tstatic         = "28.17 deg F" 
AUXDATA Deltat          = "-999" 
AUXDATA GridFileName    = "Cadence_V1"
           1       63480  6.284085055495366E-004  0.730000000000000     
   3000000.00000000        1.36000000000000       0.741264893379953     
  1.315765051917433E-002 -0.124546747321161             -999        -999
        -999  6.992544770346643E-003  6.165105748413025E-003        -999
        -999        -999        -999        -999        -999        -999
        -999        -999        -999        -999        -999        -999
        -999        -999        -999        -999
           1       63480  6.284085055495366E-004  0.730000000000000     
   3000000.00000000        1.50000000000000       0.769094878764559     
  1.418451677215254E-002 -0.124898987758779             -999        -999
        -999  8.072380665072945E-003  6.112136109890045E-003        -999
        -999        -999        -999        -999        -999        -999
        -999        -999        -999        -999        -999        -999
        -999        -999        -999        -999
           1       63480  6.284085055495366E-004  0.730000000000000     
   3000000.00000000        2.50000000000000       0.893395674258507     
  2.645380481419535E-002 -0.124407372658528             -999        -999
        -999  2.083227371252359E-002  5.621531101631893E-003        -999
        -999        -999        -999        -999        -999        -999
        -999        -999        -999        -999        -999        -999
        -999        -999        -999        -999
           1       63480  6.284085055495366E-004  0.730000000000000     
   3000000.00000000        3.00000000000000       0.918836703536557     
  3.450198440237398E-002 -0.122544786440670             -999        -999
        -999  2.921702920537906E-002  5.284955196871196E-003        -999
        -999        -999        -999        -999        -999        -999
        -999        -999        -999        -999        -999        -999
        -999        -999        -999        -999
           1       63480  6.284085055495366E-004  0.730000000000000     
   3000000.00000000        3.10000000000000       0.925376257518205     
  3.633976209918139E-002 -0.122768389441375             -999        -999
        -999  3.111962117145044E-002  5.220140927750358E-003        -999
        -999        -999        -999        -999        -999        -999
        -999        -999        -999        -999        -999        -999
        -999        -999        -999        -999
ZONE T="015.02 GRID LEVEL 2" 
AUXDATA Tstatic         = "28.17 deg F" 
AUXDATA Deltat          = "-999" 
AUXDATA GridFileName    = "Cadence_V2"
           2      122630  4.051372549459162E-004  0.730000000000000     
   3000000.00000000        1.36000000000000       0.746005345474283     
  1.331281045837032E-002 -0.125574610321996             -999        -999
        -999  7.060832465010370E-003  6.251977993335340E-003        -999
        -999        -999        -999        -999        -999        -999
        -999        -999        -999        -999        -999        -999
        -999        -999        -999        -999
           2      122630  4.051372549459162E-004  0.730000000000000     
   3000000.00000000        1.50000000000000       0.774628629255350     
  1.438437286386935E-002 -0.126145758089902             -999        -999
        -999  8.185920596554919E-003  6.198452267296934E-003        -999
        -999        -999        -999        -999        -999        -999
        -999        -999        -999        -999        -999        -999
        -999        -999        -999        -999
           2      122630  4.051372549459162E-004  0.730000000000000     
   3000000.00000000        2.50000000000000       0.900993831274304     
  2.680910479621071E-002 -0.126097331263808             -999        -999
        -999  2.107397733080384E-002  5.735127465447514E-003        -999
        -999        -999        -999        -999        -999        -999
        -999        -999        -999        -999        -999        -999
        -999        -999        -999        -999
           2      122630  4.051372549459162E-004  0.730000000000000     
   3000000.00000000        3.00000000000000       0.917762859726833     
  3.415260254966201E-002 -0.121482428115637             -999        -999
        -999  2.870927296268548E-002  5.443329586939018E-003        -999
        -999        -999        -999        -999        -999        -999
        -999        -999        -999        -999        -999        -999
        -999        -999        -999        -999
           2      122630  4.051372549459162E-004  0.730000000000000     
   3000000.00000000        3.10000000000000       0.919496289516138     
  3.573246742358133E-002 -0.120664746217057             -999        -999
        -999  3.035441173458308E-002  5.378055688919414E-003        -999
        -999        -999        -999        -999        -999        -999
        -999        -999        -999        -999        -999        -999
        -999        -999        -999        -999
ZONE T="015.02 GRID LEVEL 3" 
AUXDATA Tstatic         = "28.17 deg F" 
AUXDATA Deltat          = "-999" 
AUXDATA GridFileName    = "Cadence_V3"
           3      209778  2.832435569688000E-004  0.730000000000000     
   3000000.00000000        1.36000000000000       0.746666328998860     
  1.336050353007401E-002 -0.125747385410278             -999        -999
        -999  7.070592914774038E-003  6.289910615350724E-003        -999
        -999        -999        -999        -999        -999        -999
        -999        -999        -999        -999        -999        -999
        -999        -999        -999        -999
           3      209778  2.832435569688000E-004  0.730000000000000     
   3000000.00000000        1.50000000000000       0.775120108280765     
  1.443268560161367E-002 -0.126294668020636             -999        -999
        -999  8.196062211589875E-003  6.236623389983403E-003        -999
        -999        -999        -999        -999        -999        -999
        -999        -999        -999        -999        -999        -999
        -999        -999        -999        -999
           3      209778  2.832435569688000E-004  0.730000000000000     
   3000000.00000000        2.50000000000000       0.899830225159827     
  2.677807724283936E-002 -0.125871429031673             -999        -999
        -999  2.100666522854430E-002  5.771412014256964E-003        -999
        -999        -999        -999        -999        -999        -999
        -999        -999        -999        -999        -999        -999
        -999        -999        -999        -999
           3      209778  2.832435569688000E-004  0.730000000000000     
   3000000.00000000        3.00000000000000       0.915764566168188     
  3.406499186655477E-002 -0.121062698463048             -999        -999
        -999  2.858530724148589E-002  5.479684625062774E-003        -999
        -999        -999        -999        -999        -999        -999
        -999        -999        -999        -999        -999        -999
        -999        -999        -999        -999
           3      209778  2.832435569688000E-004  0.730000000000000     
   3000000.00000000        3.10000000000000       0.917659720989621     
  3.565569774404315E-002 -0.120295869108698             -999        -999
        -999  3.024238460908621E-002  5.413313134939808E-003        -999
        -999        -999        -999        -999        -999        -999
        -999        -999        -999        -999        -999        -999
        -999        -999        -999        -999
ZONE T="015.02 GRID LEVEL 4" 
AUXDATA Tstatic         = "28.17 deg F" 
AUXDATA Deltat          = "-999" 
AUXDATA GridFileName    = "Cadence_V4"
           4      337510  2.062887622298316E-004  0.730000000000000     
   3000000.00000000        1.36000000000000       0.746786764645151     
  1.336701671954612E-002 -0.125773627884303             -999        -999
        -999  7.060246026390327E-003  6.306770693139370E-003        -999
        -999        -999        -999        -999        -999        -999
        -999        -999        -999        -999        -999        -999
        -999        -999        -999        -999
           4      337510  2.062887622298316E-004  0.730000000000000     
   3000000.00000000        1.50000000000000       0.774997883963490     
  1.443456106752449E-002 -0.126276915905959             -999        -999
        -999  8.181052905764674E-003  6.253508161754448E-003        -999
        -999        -999        -999        -999        -999        -999
        -999        -999        -999        -999        -999        -999
        -999        -999        -999        -999
           4      337510  2.062887622298316E-004  0.730000000000000     
   3000000.00000000        2.50000000000000       0.896998238228634     
  2.661634416151176E-002 -0.125177552261288             -999        -999
        -999  2.082723557420310E-002  5.789108587390710E-003        -999
        -999        -999        -999        -999        -999        -999
        -999        -999        -999        -999        -999        -999
        -999        -999        -999        -999
           4      337510  2.062887622298316E-004  0.730000000000000     
   3000000.00000000        3.00000000000000       0.912412738545053     
  3.387303670540486E-002 -0.120285021403679             -999        -999
        -999  2.837529946073392E-002  5.497737244572871E-003        -999
        -999        -999        -999        -999        -999        -999
        -999        -999        -999        -999        -999        -999
        -999        -999        -999        -999
           4      337510  2.062887622298316E-004  0.730000000000000     
   3000000.00000000        3.10000000000000       0.915752672139772     
  3.556410446917203E-002 -0.119902236744111             -999        -999
        -999  3.013383065000208E-002  5.430273819115391E-003        -999
        -999        -999        -999        -999        -999        -999
        -999        -999        -999        -999        -999        -999
        -999        -999        -999        -999
ZONE T="015.02 GRID LEVEL 5" 
AUXDATA Tstatic         = "28.17 deg F" 
AUXDATA Deltat          = "-999" 
AUXDATA GridFileName    = "Cadence_V5"
           5      522458  1.541578853475328E-004  0.730000000000000     
   3000000.00000000        1.36000000000000       0.746534180367743     
  1.336843787599907E-002 -0.125727333765185             -999        -999
        -999  7.050664516990916E-003  6.317773359018146E-003        -999
        -999        -999        -999        -999        -999        -999
        -999        -999        -999        -999        -999        -999
        -999        -999        -999        -999
           5      522458  1.541578853475328E-004  0.730000000000000     
   3000000.00000000        1.50000000000000       0.774543896681982     
  1.443044283293454E-002 -0.126189042450891             -999        -999
        -999  8.165957276353121E-003  6.264485556592272E-003        -999
        -999        -999        -999        -999        -999        -999
        -999        -999        -999        -999        -999        -999
        -999        -999        -999        -999
           5      522458  1.541578853475328E-004  0.730000000000000     
   3000000.00000000        2.50000000000000       0.893916362345778     
  2.645485586819785E-002 -0.124457495649468             -999        -999
        -999  2.065648624364855E-002  5.798369624530860E-003        -999
        -999        -999        -999        -999        -999        -999
        -999        -999        -999        -999        -999        -999
        -999        -999        -999        -999
           5      522458  1.541578853475328E-004  0.730000000000000     
   3000000.00000000        3.00000000000000       0.908161872251958     
  3.367521948874056E-002 -0.119442593999289             -999        -999
        -999  2.817462009811083E-002  5.500599390571410E-003        -999
        -999        -999        -999        -999        -999        -999
        -999        -999        -999        -999        -999        -999
        -999        -999        -999        -999
           5      522458  1.541578853475328E-004  0.730000000000000     
   3000000.00000000        3.10000000000000       0.976567769265853     
  3.712580934887297E-002 -0.131488025398376             -999        -999
        -999  3.188517359916938E-002  5.240635749710519E-003        -999
        -999        -999        -999        -999        -999        -999
        -999        -999        -999        -999        -999        -999
        -999        -999        -999        -999
ZONE T="015.02 GRID LEVEL 6" 
AUXDATA Tstatic         = "28.17 deg F" 
AUXDATA Deltat          = "-999" 
AUXDATA GridFileName    = "Cadence_V6"
           6      790852  1.169328464932121E-004  0.730000000000000     
   3000000.00000000        1.36000000000000       0.746593264344945     
  1.338412057269349E-002 -0.125738637538868             -999        -999
        -999  7.060014569404948E-003  6.324106003287011E-003        -999
        -999        -999        -999        -999        -999        -999
        -999        -999        -999        -999        -999        -999
        -999        -999        -999        -999
           6      790852  1.169328464932121E-004  0.730000000000000     
   3000000.00000000        1.50000000000000       0.774493132430626     
  1.444745687790070E-002 -0.126187328076384             -999        -999
        -999  8.176604437503919E-003  6.270852440392825E-003        -999
        -999        -999        -999        -999        -999        -999
        -999        -999        -999        -999        -999        -999
        -999        -999        -999        -999
           6      790852  1.169328464932121E-004  0.730000000000000     
   3000000.00000000        2.50000000000000       0.894546640778243     
  2.653039051297913E-002 -0.124662755626127             -999        -999
        -999  2.072412863196562E-002  5.806261881042038E-003        -999
        -999        -999        -999        -999        -999        -999
        -999        -999        -999        -999        -999        -999
        -999        -999        -999        -999
           6      790852  1.169328464932121E-004  0.730000000000000     
   3000000.00000000        3.00000000000000        1.00832900037769     
  3.834743754141341E-002 -0.141698771050226             -999        -999
        -999  3.304847080469919E-002  5.298966736763416E-003        -999
        -999        -999        -999        -999        -999        -999
        -999        -999        -999        -999        -999        -999
        -999        -999        -999        -999
           6      790852  1.169328464932121E-004  0.730000000000000     
   3000000.00000000        3.10000000000000        1.00919445539125     
  4.008531077595374E-002 -0.142274878135000             -999        -999
        -999  3.492646921974479E-002  5.158841556226712E-003        -999
        -999        -999        -999        -999        -999        -999
        -999        -999        -999        -999        -999        -999
        -999        -999        -999        -999
ZONE T="015.02 ALPHA 1.36" 
AUXDATA Tstatic         = "28.17 deg F"
AUXDATA Deltat          = "-999" 
AUXDATA GridFileName    = "Cadence"
           1       63480  6.284085055495366E-004  0.730000000000000     
   3000000.00000000        1.36000000000000       0.741264893379953     
  1.315765051917433E-002 -0.124546747321161             -999        -999
        -999  6.992544770346643E-003  6.165105748413025E-003        -999
        -999        -999        -999        -999        -999        -999
        -999        -999        -999        -999        -999        -999
        -999        -999        -999        -999
           2      122630  4.051372549459162E-004  0.730000000000000     
   3000000.00000000        1.36000000000000       0.746005345474283     
  1.331281045837032E-002 -0.125574610321996             -999        -999
        -999  7.060832465010370E-003  6.251977993335340E-003        -999
        -999        -999        -999        -999        -999        -999
        -999        -999        -999        -999        -999        -999
        -999        -999        -999        -999
           3      209778  2.832435569688000E-004  0.730000000000000     
   3000000.00000000        1.36000000000000       0.746666328998860     
  1.336050353007401E-002 -0.125747385410278             -999        -999
        -999  7.070592914774038E-003  6.289910615350724E-003        -999
        -999        -999        -999        -999        -999        -999
        -999        -999        -999        -999        -999        -999
        -999        -999        -999        -999
           4      337510  2.062887622298316E-004  0.730000000000000     
   3000000.00000000        1.36000000000000       0.746786764645151     
  1.336701671954612E-002 -0.125773627884303             -999        -999
        -999  7.060246026390327E-003  6.306770693139370E-003        -999
        -999        -999        -999        -999        -999        -999
        -999        -999        -999        -999        -999        -999
        -999        -999        -999        -999
           5      522458  1.541578853475328E-004  0.730000000000000     
   3000000.00000000        1.36000000000000       0.746534180367743     
  1.336843787599907E-002 -0.125727333765185             -999        -999
        -999  7.050664516990916E-003  6.317773359018146E-003        -999
        -999        -999        -999        -999        -999        -999
        -999        -999        -999        -999        -999        -999
        -999        -999        -999        -999
           6      790852  1.169328464932121E-004  0.730000000000000     
   3000000.00000000        1.36000000000000       0.746593264344945     
  1.338412057269349E-002 -0.125738637538868             -999        -999
        -999  7.060014569404948E-003  6.324106003287011E-003        -999
        -999        -999        -999        -999        -999        -999
        -999        -999        -999        -999        -999        -999
        -999        -999        -999        -999
ZONE T="015.02 ALPHA 1.5" 
AUXDATA Tstatic         = "28.17 deg F"
AUXDATA Deltat          = "-999" 
AUXDATA GridFileName    = "Cadence"
           1       63480  6.284085055495366E-004  0.730000000000000     
   3000000.00000000        1.50000000000000       0.769094878764559     
  1.418451677215254E-002 -0.124898987758779             -999        -999
        -999  8.072380665072945E-003  6.112136109890045E-003        -999
        -999        -999        -999        -999        -999        -999
        -999        -999        -999        -999        -999        -999
        -999        -999        -999        -999
           2      122630  4.051372549459162E-004  0.730000000000000     
   3000000.00000000        1.50000000000000       0.774628629255350     
  1.438437286386935E-002 -0.126145758089902             -999        -999
        -999  8.185920596554919E-003  6.198452267296934E-003        -999
        -999        -999        -999        -999        -999        -999
        -999        -999        -999        -999        -999        -999
        -999        -999        -999        -999
           3      209778  2.832435569688000E-004  0.730000000000000     
   3000000.00000000        1.50000000000000       0.775120108280765     
  1.443268560161367E-002 -0.126294668020636             -999        -999
        -999  8.196062211589875E-003  6.236623389983403E-003        -999
        -999        -999        -999        -999        -999        -999
        -999        -999        -999        -999        -999        -999
        -999        -999        -999        -999
           4      337510  2.062887622298316E-004  0.730000000000000     
   3000000.00000000        1.50000000000000       0.774997883963490     
  1.443456106752449E-002 -0.126276915905959             -999        -999
        -999  8.181052905764674E-003  6.253508161754448E-003        -999
        -999        -999        -999        -999        -999        -999
        -999        -999        -999        -999        -999        -999
        -999        -999        -999        -999
           5      522458  1.541578853475328E-004  0.730000000000000     
   3000000.00000000        1.50000000000000       0.774543896681982     
  1.443044283293454E-002 -0.126189042450891             -999        -999
        -999  8.165957276353121E-003  6.264485556592272E-003        -999
        -999        -999        -999        -999        -999        -999
        -999        -999        -999        -999        -999        -999
        -999        -999        -999        -999
           6      790852  1.169328464932121E-004  0.730000000000000     
   3000000.00000000        1.50000000000000       0.774493132430626     
  1.444745687790070E-002 -0.126187328076384             -999        -999
        -999  8.176604437503919E-003  6.270852440392825E-003        -999
        -999        -999        -999        -999        -999        -999
        -999        -999        -999        -999        -999        -999
        -999        -999        -999        -999
ZONE T="015.02 ALPHA 2.5" 
AUXDATA Tstatic         = "28.17 deg F"
AUXDATA Deltat          = "-999" 
AUXDATA GridFileName    = "Cadence"
           1       63480  6.284085055495366E-004  0.730000000000000     
   3000000.00000000        2.50000000000000       0.893395674258507     
  2.645380481419535E-002 -0.124407372658528             -999        -999
        -999  2.083227371252359E-002  5.621531101631893E-003        -999
        -999        -999        -999        -999        -999        -999
        -999        -999        -999        -999        -999        -999
        -999        -999        -999        -999
           2      122630  4.051372549459162E-004  0.730000000000000     
   3000000.00000000        2.50000000000000       0.900993831274304     
  2.680910479621071E-002 -0.126097331263808             -999        -999
        -999  2.107397733080384E-002  5.735127465447514E-003        -999
        -999        -999        -999        -999        -999        -999
        -999        -999        -999        -999        -999        -999
        -999        -999        -999        -999
           3      209778  2.832435569688000E-004  0.730000000000000     
   3000000.00000000        2.50000000000000       0.899830225159827     
  2.677807724283936E-002 -0.125871429031673             -999        -999
        -999  2.100666522854430E-002  5.771412014256964E-003        -999
        -999        -999        -999        -999        -999        -999
        -999        -999        -999        -999        -999        -999
        -999        -999        -999        -999
           4      337510  2.062887622298316E-004  0.730000000000000     
   3000000.00000000        2.50000000000000       0.896998238228634     
  2.661634416151176E-002 -0.125177552261288             -999        -999
        -999  2.082723557420310E-002  5.789108587390710E-003        -999
        -999        -999        -999        -999        -999        -999
        -999        -999        -999        -999        -999        -999
        -999        -999        -999        -999
           5      522458  1.541578853475328E-004  0.730000000000000     
   3000000.00000000        2.50000000000000       0.893916362345778     
  2.645485586819785E-002 -0.124457495649468             -999        -999
        -999  2.065648624364855E-002  5.798369624530860E-003        -999
        -999        -999        -999        -999        -999        -999
        -999        -999        -999        -999        -999        -999
        -999        -999        -999        -999
           6      790852  1.169328464932121E-004  0.730000000000000     
   3000000.00000000        2.50000000000000       0.894546640778243     
  2.653039051297913E-002 -0.124662755626127             -999        -999
        -999  2.072412863196562E-002  5.806261881042038E-003        -999
        -999        -999        -999        -999        -999        -999
        -999        -999        -999        -999        -999        -999
        -999        -999        -999        -999
ZONE T="015.02 ALPHA 3.0" 
AUXDATA Tstatic         = "28.17 deg F"
AUXDATA Deltat          = "-999" 
AUXDATA GridFileName    = "Cadence"
           1       63480  6.284085055495366E-004  0.730000000000000     
   3000000.00000000        3.00000000000000       0.918836703536557     
  3.450198440237398E-002 -0.122544786440670             -999        -999
        -999  2.921702920537906E-002  5.284955196871196E-003        -999
        -999        -999        -999        -999        -999        -999
        -999        -999        -999        -999        -999        -999
        -999        -999        -999        -999
           2      122630  4.051372549459162E-004  0.730000000000000     
   3000000.00000000        3.00000000000000       0.917762859726833     
  3.415260254966201E-002 -0.121482428115637             -999        -999
        -999  2.870927296268548E-002  5.443329586939018E-003        -999
        -999        -999        -999        -999        -999        -999
        -999        -999        -999        -999        -999        -999
        -999        -999        -999        -999
           3      209778  2.832435569688000E-004  0.730000000000000     
   3000000.00000000        3.00000000000000       0.915764566168188     
  3.406499186655477E-002 -0.121062698463048             -999        -999
        -999  2.858530724148589E-002  5.479684625062774E-003        -999
        -999        -999        -999        -999        -999        -999
        -999        -999        -999        -999        -999        -999
        -999        -999        -999        -999
           4      337510  2.062887622298316E-004  0.730000000000000     
   3000000.00000000        3.00000000000000       0.912412738545053     
  3.387303670540486E-002 -0.120285021403679             -999        -999
        -999  2.837529946073392E-002  5.497737244572871E-003        -999
        -999        -999        -999        -999        -999        -999
        -999        -999        -999        -999        -999        -999
        -999        -999        -999        -999
           5      522458  1.541578853475328E-004  0.730000000000000     
   3000000.00000000        3.00000000000000       0.908161872251958     
  3.367521948874056E-002 -0.119442593999289             -999        -999
        -999  2.817462009811083E-002  5.500599390571410E-003        -999
        -999        -999        -999        -999        -999        -999
        -999        -999        -999        -999        -999        -999
        -999        -999        -999        -999
           6      790852  1.169328464932121E-004  0.730000000000000     
   3000000.00000000        3.00000000000000        1.00832900037769     
  3.834743754141341E-002 -0.141698771050226             -999        -999
        -999  3.304847080469919E-002  5.298966736763416E-003        -999
        -999        -999        -999        -999        -999        -999
        -999        -999        -999        -999        -999        -999
        -999        -999        -999        -999
ZONE T="015.02 ALPHA 3.1" 
AUXDATA Tstatic         = "28.17 deg F"
AUXDATA Deltat          = "-999" 
AUXDATA GridFileName    = "Cadence"
           1       63480  6.284085055495366E-004  0.730000000000000     
   3000000.00000000        3.10000000000000       0.925376257518205     
  3.633976209918139E-002 -0.122768389441375             -999        -999
        -999  3.111962117145044E-002  5.220140927750358E-003        -999
        -999        -999        -999        -999        -999        -999
        -999        -999        -999        -999        -999        -999
        -999        -999        -999        -999
           2      122630  4.051372549459162E-004  0.730000000000000     
   3000000.00000000        3.10000000000000       0.919496289516138     
  3.573246742358133E-002 -0.120664746217057             -999        -999
        -999  3.035441173458308E-002  5.378055688919414E-003        -999
        -999        -999        -999        -999        -999        -999
        -999        -999        -999        -999        -999        -999
        -999        -999        -999        -999
           3      209778  2.832435569688000E-004  0.730000000000000     
   3000000.00000000        3.10000000000000       0.917659720989621     
  3.565569774404315E-002 -0.120295869108698             -999        -999
        -999  3.024238460908621E-002  5.413313134939808E-003        -999
        -999        -999        -999        -999        -999        -999